Title: rising_tt_1.8V_25.0C
Date: Mon Jan 01 00:00:00 2026
Plotname: Transient Analysis
Flags: real
No. Variables: 2
No. Points: 11
Variables:
	0	time	time
	1	v(pad)	voltage
Values:
0	0.00000000e+00
	0.00000000e+00
1	5.00000000e-10
	1.00000000e-02
2	1.00000000e-09
	5.00000000e-02
3	1.50000000e-09
	2.50000000e-01
4	2.00000000e-09
	7.00000000e-01
5	2.50000000e-09
	1.20000000e+00
6	3.00000000e-09
	1.55000000e+00
7	3.50000000e-09
	1.72000000e+00
8	4.00000000e-09
	1.78000000e+00
9	4.50000000e-09
	1.80000000e+00
10	5.00000000e-09
	1.80000000e+00
