Title: pulldown_tt_1.8V_25.0C
Date: Mon Jan 01 00:00:00 2026
Plotname: DC transfer characteristic
Flags: real
No. Variables: 2
No. Points: 16
Variables:
	0	v-sweep	voltage
	1	v(pad)#branch	current
Values:
0	-1.80000000e+00
	1.23456789e-03
1	-1.44000000e+00
	9.87654321e-04
2	-1.08000000e+00
	7.65432100e-04
3	-7.20000000e-01
	5.43210000e-04
4	-3.60000000e-01
	3.21098700e-04
5	0.00000000e+00
	1.00000000e-07
6	3.60000000e-01
	-3.21098700e-04
7	7.20000000e-01
	-5.43210000e-04
8	1.08000000e+00
	-7.65432100e-04
9	1.44000000e+00
	-9.87654321e-04
10	1.80000000e+00
	-1.23456789e-03
11	2.16000000e+00
	-1.45678900e-03
12	2.52000000e+00
	-1.67890100e-03
13	2.88000000e+00
	-1.89012300e-03
14	3.24000000e+00
	-2.10123400e-03
15	3.60000000e+00
	-2.31234500e-03
